<?xml version="1.0" encoding="UTF-8"?>

<configuration xmlns:xsi="http://www.w3.org/2001/XMLSchema-instance" xsi:noNamespaceSchemaLocation="http://sumo.sf.net/xsd/sumoConfiguration.xsd">

    <input>
        <net-file value="castell.net.xml"/>
        <route-files value="castell.rou.xml"/>
        <additional-files value="castell.poly.xml"/>
    </input>
    <output>
	<!--
	 <battery-output value="/opt/New_version/veins/examples/veins/outputs/battery.out.xml"/>
	 <netstate-dump value="/opt/New_version/veins/examples/veins/outputs/netstate.out.xml"/>
	  <emission-output value="/opt/New_version/veins/examples/veins/outputs/emission.out.xml"/>
	  <full-output value="/opt/New_version/veins/examples/veins/outputs/full.out.xml"/>
	   <amitran-output value="/opt/New_version/veins/examples/veins/outputs/amitran.out.xml"/>
	    -->
	</output>
 
    <time>
        <begin value="0"/>
        <end value="3600"/>  
        <step-length value="1"/>
    </time>
</configuration>
