<?xml version="1.0" encoding="UTF-8"?>

<configuration xmlns:xsi="http://www.w3.org/2001/XMLSchema-instance" xsi:noNamespaceSchemaLocation="http://sumo.sf.net/xsd/sumoConfiguration.xsd">

    <input>
        <net-file value="sfamilia.net.xml"/>
        <route-files value="sfamiliaMD.rou.xml"/>
        <additional-files value="sfamilia.poly.xml"/>
    </input>
 	<processing>
        <time-to-teleport value="300"/>
        <time-to-teleport.highways value="0"/>
	</processing>
    <output>
        <summary-output value="/root/Documents/RESULTS/2hGAR/Dropbox/Simulations/logs/SUMO_summary_MD.out"/>
    </output>
  
    <time>
        <begin value="0"/>
        <end value="1000"/>  
        <step-length value="1"/>
    </time>
</configuration>
